/*--------------------------------*- C++ -*----------------------------------*\
| =========                 |                                                 |
| \\      /  F ield         | foam-extend: Open Source CFD                    |
|  \\    /   O peration     | Version:     3.2                                |
|   \\  /    A nd           | Web:         http://www.foam-extend.org         |
|    \\/     M anipulation  | For copyright notice see file Copyright         |
\*---------------------------------------------------------------------------*/
FoamFile
{
    version     2.0;
    format      ascii;
    class       volVectorField;
    location    "25";
    object      U;
}
// * * * * * * * * * * * * * * * * * * * * * * * * * * * * * * * * * * * * * //

dimensions      [0 1 -1 0 0 0 0];

internalField   nonuniform List<vector> 
4096
(
(0.02070311856 -2.723329823e-06 -2.53333094e-15)
(0.02070311881 -2.723329872e-06 -2.6156546e-15)
(0.02070311881 -2.723329871e-06 2.678959388e-15)
(0.02070311856 -2.723329824e-06 2.761013356e-15)
(0.1035185412 -3.518266753e-07 -1.286126803e-14)
(0.1035185414 -3.518267359e-07 -1.468090627e-14)
(0.1035185414 -3.518267412e-07 1.358945157e-14)
(0.1035185412 -3.518266759e-07 1.540779209e-14)
(0.2690228095 1.044879778e-06 -2.922040579e-14)
(0.2690228097 1.044879769e-06 -3.547904885e-14)
(0.2690228097 1.044879719e-06 3.111304113e-14)
(0.2690228095 1.044879787e-06 3.736841086e-14)
(0.5166709038 2.451503697e-06 -4.327835606e-14)
(0.5166709039 2.451503732e-06 -5.819637515e-14)
(0.5166709039 2.451503631e-06 4.691362126e-14)
(0.5166709038 2.451503771e-06 6.182626276e-14)
(0.8450857502 5.140353415e-06 -5.248360504e-14)
(0.8450857504 5.140353391e-06 -7.724173876e-14)
(0.8450857504 5.14035338e-06 5.842949134e-14)
(0.8450857502 5.140353564e-06 8.318248967e-14)
(1.251564539 9.616704963e-06 -5.288236446e-14)
(1.251564539 9.616704943e-06 -7.579172232e-14)
(1.251564539 9.616705079e-06 6.169232663e-14)
(1.251564539 9.616705078e-06 8.459161529e-14)
(1.731642088 1.238583099e-05 -2.787086521e-14)
(1.731642088 1.238583096e-05 -4.669261213e-14)
(1.731642088 1.238583103e-05 4.006430505e-14)
(1.731642088 1.238583098e-05 5.887439243e-14)
(2.278796575 7.361118995e-06 8.268210472e-15)
(2.278796575 7.361118768e-06 -2.14895211e-14)
(2.278796575 7.36111874e-06 7.776552839e-15)
(2.278796575 7.361118931e-06 3.753158719e-14)
(2.884351738 -1.06503155e-05 2.755718491e-14)
(2.884351738 -1.065031579e-05 -1.82900776e-14)
(2.884351738 -1.06503158e-05 -7.238325308e-15)
(2.884351738 -1.065031537e-05 3.860136728e-14)
(3.537611574 -3.813445054e-05 2.335491569e-14)
(3.537611574 -3.813445092e-05 -1.927290608e-14)
(3.537611574 -3.813445111e-05 1.578658206e-15)
(3.537611574 -3.813445076e-05 4.419457216e-14)
(4.226227739 -3.246897365e-05 6.789307456e-14)
(4.226227739 -3.246897411e-05 -9.863041925e-14)
(4.226227739 -3.24689744e-05 -3.809742689e-14)
(4.226227739 -3.246897407e-05 1.284246568e-13)
(4.93713548 4.123960486e-06 6.426038785e-14)
(4.937135479 4.123960493e-06 -1.580136232e-13)
(4.937135479 4.123960024e-06 -2.942833515e-14)
(4.93713548 4.123960527e-06 1.928343649e-13)
(5.658005746 1.400064037e-05 1.080033507e-13)
(5.658005746 1.400064085e-05 -2.088816876e-13)
(5.658005746 1.400064001e-05 -6.806332444e-14)
(5.658005746 1.400064052e-05 2.488074737e-13)
(6.377968916 9.175343677e-06 1.561834741e-13)
(6.377968916 9.175344323e-06 -2.435375749e-13)
(6.377968916 9.175343474e-06 -1.111366484e-13)
(6.377968916 9.175344409e-06 2.885656577e-13)
(7.087562656 4.853429203e-06 1.051628689e-13)
(7.087562655 4.853429416e-06 -2.404101624e-13)
(7.087562655 4.853428457e-06 -5.508297769e-14)
(7.087562656 4.853430168e-06 2.90477244e-13)
(7.778729724 1.316765125e-06 6.279050674e-15)
(7.778729723 1.316765176e-06 -3.708415193e-13)
(7.778729723 1.316763887e-06 4.871140511e-14)
(7.778729724 1.316766022e-06 4.258177042e-13)
(8.44482532 -1.59014863e-06 -6.866876527e-14)
(8.444825319 -1.59014862e-06 -4.574261967e-13)
(8.444825319 -1.59015037e-06 1.283813096e-13)
(8.44482532 -1.590147915e-06 5.171539112e-13)
(9.080618385 -3.576735633e-06 -1.344218069e-13)
(9.080618384 -3.576735877e-06 -6.966478022e-13)
(9.080618384 -3.576738027e-06 1.98658768e-13)
(9.080618385 -3.576734978e-06 7.609072794e-13)
(9.68227746 -4.682766263e-06 -2.539853719e-13)
(9.682277459 -4.68276757e-06 -9.337334432e-13)
(9.682277459 -4.682770222e-06 3.225025327e-13)
(9.68227746 -4.682765675e-06 1.002288171e-12)
(10.24732128 -5.184823798e-06 -6.219098831e-13)
(10.24732128 -5.184824787e-06 -1.615326901e-12)
(10.24732128 -5.184828343e-06 6.944599917e-13)
(10.24732128 -5.184823262e-06 1.687907756e-12)
(10.77452221 -4.698613841e-06 -6.75600235e-13)
(10.7745222 -4.698599338e-06 -2.045316053e-12)
(10.7745222 -4.698603979e-06 7.51919079e-13)
(10.77452221 -4.698613278e-06 2.121649571e-12)
(11.26376342 -5.1264255e-06 3.758122115e-12)
(11.26376342 -5.126408993e-06 1.769623283e-12)
(11.26376342 -5.126414933e-06 -3.678297162e-12)
(11.26376342 -5.126425226e-06 -1.689801149e-12)
(11.7158614 -4.724503511e-06 3.985462937e-12)
(11.7158614 -4.724497368e-06 1.146931201e-12)
(11.7158614 -4.724506756e-06 -3.902384629e-12)
(11.7158614 -4.724503258e-06 -1.063887286e-12)
(12.13237192 -2.678701721e-06 5.299324239e-12)
(12.13237192 -2.678691127e-06 6.895413253e-13)
(12.13237192 -2.678703775e-06 -5.213252574e-12)
(12.13237192 -2.678701984e-06 -6.035207652e-13)
(12.51538907 -1.722705639e-06 7.056617267e-12)
(12.51538908 -1.722678308e-06 3.904002889e-13)
(12.51538908 -1.722706857e-06 -6.96781824e-12)
(12.51538907 -1.722706508e-06 -3.016223361e-13)
(12.86735175 -6.502171429e-07 1.485797296e-11)
(12.86735175 -6.502169505e-07 2.081117366e-13)
(12.86735175 -6.502178321e-07 -1.476665112e-11)
(12.86735175 -6.502178695e-07 -1.168138399e-13)
(13.190878 4.665131748e-08 5.977420826e-12)
(13.190878 4.662456596e-08 1.139061194e-13)
(13.190878 4.665083258e-08 -5.883774074e-12)
(13.190878 4.665066252e-08 -2.029436685e-14)
(13.48863203 6.531169927e-07 4.14095888e-12)
(13.48863203 6.531073115e-07 1.315819642e-14)
(13.48863203 6.531168296e-07 -4.045183812e-12)
(13.48863203 6.531159679e-07 8.259477985e-14)
(13.76322366 1.066621319e-06 1.892946397e-12)
(13.76322366 1.066613751e-06 5.754588492e-14)
(13.76322366 1.066621225e-06 -1.795201912e-12)
(13.76322366 1.066620006e-06 4.018112875e-14)
(14.01713735 1.377207522e-06 1.244774839e-12)
(14.01713735 1.377203472e-06 -1.133177595e-14)
(14.01713735 1.377207276e-06 -1.145199318e-12)
(14.01713735 1.377205927e-06 1.108705509e-13)
(14.25268625 1.569869804e-06 6.116892038e-13)
(14.25268625 1.569866584e-06 -2.672860062e-14)
(14.25268625 1.569869807e-06 -5.104067888e-13)
(14.25268625 1.569868259e-06 1.279575458e-13)
(14.47198658 1.685889773e-06 3.865204846e-13)
(14.47198658 1.685887564e-06 1.740902862e-14)
(14.47198658 1.685889714e-06 -2.83631402e-13)
(14.47198658 1.685888275e-06 8.539584429e-14)
(14.67694733 1.731365261e-06 2.114139652e-13)
(14.67694733 1.731363267e-06 -2.189436645e-14)
(14.67694733 1.73136518e-06 -1.070370718e-13)
(14.67694733 1.73136366e-06 1.261922818e-13)
(14.86927132 1.729498623e-06 1.671477209e-13)
(14.86927132 1.729497195e-06 1.464656982e-14)
(14.86927132 1.729498679e-06 -6.135457185e-14)
(14.86927132 1.729497442e-06 9.103030309e-14)
(15.05046383 1.689115894e-06 7.535661759e-14)
(15.05046383 1.689114425e-06 4.344146567e-14)
(15.05046383 1.689115787e-06 3.177147936e-14)
(15.05046383 1.689114647e-06 6.355587369e-14)
(15.2218461 1.623991477e-06 5.291689217e-14)
(15.2218461 1.623990208e-06 2.152846715e-15)
(15.2218461 1.623991357e-06 5.544392192e-14)
(15.2218461 1.623990197e-06 1.060842154e-13)
(15.3845714 1.541030151e-06 8.624816359e-14)
(15.3845714 1.541029015e-06 2.695156858e-14)
(15.3845714 1.541030067e-06 2.327759498e-14)
(15.3845714 1.541029143e-06 8.245323769e-14)
(15.53964226 1.448237004e-06 -7.807426502e-15)
(15.53964226 1.448235997e-06 6.439478514e-15)
(15.53964226 1.448236962e-06 1.184322567e-13)
(15.53964226 1.448236007e-06 1.040865805e-13)
(15.68792752 1.349995598e-06 9.548518532e-14)
(15.68792752 1.349994773e-06 5.720240907e-14)
(15.68792752 1.349995605e-06 1.621889192e-14)
(15.68792752 1.349994821e-06 5.437409479e-14)
(15.8301787 1.250681553e-06 -1.955241449e-14)
(15.8301787 1.250680741e-06 6.66606351e-14)
(15.8301787 1.250681502e-06 1.32262497e-13)
(15.8301787 1.250680848e-06 4.594326094e-14)
(15.96704509 1.152684374e-06 5.770477279e-14)
(15.96704509 1.152683606e-06 8.945511479e-14)
(15.96704509 1.152684218e-06 5.598053757e-14)
(15.96704509 1.152683599e-06 2.411750709e-14)
(16.09908749 1.058167232e-06 7.340841901e-15)
(16.09908749 1.058166518e-06 3.971761464e-14)
(16.09908749 1.058167131e-06 1.072900371e-13)
(16.09908749 1.058166591e-06 7.480854343e-14)
(16.22679036 9.682035046e-07 3.989804234e-14)
(16.22679036 9.682028595e-07 9.992869503e-14)
(16.22679036 9.682033407e-07 7.565692196e-14)
(16.22679036 9.682028817e-07 1.549458559e-14)
(16.35057255 8.836761784e-07 2.010600911e-14)
(16.35057255 8.836755336e-07 1.091457228e-14)
(16.35057255 8.836760153e-07 9.633490677e-14)
(16.35057255 8.836755587e-07 1.054094498e-13)
(16.47079662 8.048822097e-07 5.30646304e-14)
(16.47079662 8.048816713e-07 7.478767794e-14)
(16.47079662 8.048820735e-07 6.425816431e-14)
(16.47079662 8.048817107e-07 4.238043555e-14)
(16.58777688 7.320089862e-07 2.626305212e-14)
(16.58777688 7.320085358e-07 2.972345845e-15)
(16.58777688 7.320088494e-07 9.186816986e-14)
(16.58777688 7.320085805e-07 1.150231866e-13)
(16.70178629 6.649426352e-07 5.904749808e-14)
(16.70178629 6.6494222e-07 6.988478216e-14)
(16.70178629 6.649425731e-07 5.992141929e-14)
(16.70178629 6.649422912e-07 4.894514693e-14)
(16.81306233 6.035248332e-07 1.541519099e-14)
(16.81306233 6.035244255e-07 4.726738379e-14)
(16.81306233 6.035246734e-07 1.043318821e-13)
(16.81306233 6.035244331e-07 7.241305301e-14)
(16.92181206 5.474526622e-07 9.363184715e-14)
(16.92181206 5.474522676e-07 5.055263179e-14)
(16.92181206 5.474525005e-07 2.692187717e-14)
(16.92181206 5.47452322e-07 6.987874336e-14)
(17.02821634 4.964208338e-07 2.083975225e-14)
(17.02821634 4.964204498e-07 2.830897293e-14)
(17.02821634 4.964206604e-07 1.004683837e-13)
(17.02821634 4.964205449e-07 9.291455123e-14)
(17.13243344 4.500643848e-07 7.07514797e-14)
(17.13243344 4.500639804e-07 2.434345236e-14)
(17.13243344 4.500641947e-07 5.12852596e-14)
(17.13243344 4.500640947e-07 9.763766101e-14)
(17.23460213 4.080374591e-07 -1.624162233e-14)
(17.23460213 4.080373373e-07 -6.480742949e-15)
(17.23460213 4.08037501e-07 1.389812347e-13)
(17.23460213 4.080373074e-07 1.292704726e-13)
(17.33484427 3.699771638e-07 1.430940613e-13)
(17.33484427 3.699769606e-07 1.582197592e-13)
(17.33484427 3.699770605e-07 -1.957139399e-14)
(17.33484427 3.699769034e-07 -3.473407857e-14)
(17.433267 3.355501713e-07 6.601137567e-14)
(17.433267 3.355498259e-07 9.266912302e-15)
(17.433267 3.355499575e-07 5.823677819e-14)
(17.433267 3.355499885e-07 1.148959678e-13)
(17.5299646 3.044284571e-07 7.020671089e-14)
(17.5299646 3.044282199e-07 1.033743837e-13)
(17.5299646 3.044283271e-07 5.473670511e-14)
(17.5299646 3.04428276e-07 2.151693793e-14)
(17.62502012 2.763127543e-07 7.194998922e-14)
(17.62502012 2.76312513e-07 1.559141345e-14)
(17.62502012 2.763126031e-07 5.367786204e-14)
(17.62502012 2.763125476e-07 1.100121512e-13)
(17.71850668 2.509194019e-07 9.188913153e-14)
(17.71850668 2.509192455e-07 9.303859105e-14)
(17.71850668 2.509192551e-07 3.443119695e-14)
(17.71850668 2.509193002e-07 3.324468173e-14)
(17.8104887 2.279919285e-07 7.852844943e-14)
(17.8104887 2.279917412e-07 8.706950162e-15)
(17.8104887 2.279917824e-07 4.847096132e-14)
(17.8104887 2.279917388e-07 1.181956272e-13)
(17.90102281 2.072916035e-07 1.422211027e-13)
(17.90102281 2.072914179e-07 8.502194834e-14)
(17.90102281 2.072915146e-07 -1.4569706e-14)
(17.90102281 2.072914772e-07 4.249161015e-14)
(17.99015874 1.886038038e-07 8.179434459e-14)
(17.99015874 1.886036042e-07 4.429440058e-14)
(17.99015874 1.886036362e-07 4.650155902e-14)
(17.99015874 1.88603652e-07 8.387701977e-14)
(18.07794005 1.71731301e-07 1.542509781e-13)
(18.07794005 1.717311357e-07 5.709872116e-14)
(18.07794005 1.717311691e-07 -2.529455227e-14)
(18.07794005 1.71731207e-07 7.167173208e-14)
(18.16440476 1.564972579e-07 7.447544392e-14)
(18.16440476 1.56497054e-07 4.809858839e-14)
(18.16440476 1.564970856e-07 5.510562282e-14)
(18.16440476 1.564970668e-07 8.131819692e-14)
(18.24958587 1.427403156e-07 1.947527007e-13)
(18.24958587 1.427401335e-07 2.26540442e-14)
(18.24958587 1.427401937e-07 -6.456262112e-14)
(18.24958587 1.427401861e-07 1.073756352e-13)
(18.33351184 1.303159595e-07 8.508669785e-14)
(18.33351184 1.303158649e-07 5.883125013e-14)
(18.33351184 1.303158767e-07 4.570106251e-14)
(18.33351184 1.303159364e-07 7.179122025e-14)
(18.41620702 1.190935398e-07 1.881238071e-13)
(18.41620702 1.190933863e-07 6.45964568e-14)
(18.41620702 1.190934039e-07 -5.675893053e-14)
(18.41620702 1.190934428e-07 6.66713554e-14)
(18.49769198 1.089552179e-07 9.100011455e-14)
(18.49769198 1.089550092e-07 5.554251277e-14)
(18.49769198 1.089550734e-07 4.09885056e-14)
(18.49769198 1.089551025e-07 7.63235255e-14)
(18.57798385 9.979550524e-08 1.575863506e-13)
(18.57798385 9.979539415e-08 4.915904042e-14)
(18.57798385 9.979542582e-08 -2.493298315e-14)
(18.57798385 9.979551397e-08 8.334539263e-14)
(18.65709654 9.151887942e-08 3.814221612e-14)
(18.65709654 9.151881386e-08 9.982772279e-14)
(18.65709654 9.151880831e-08 9.50950965e-14)
(18.65709654 9.151887565e-08 3.328925032e-14)
(18.73504107 8.404069752e-08 1.537862053e-13)
(18.73504107 8.404055564e-08 9.68891089e-14)
(18.73504107 8.404056284e-08 -1.994736658e-14)
(18.73504107 8.40405344e-08 3.685652136e-14)
(18.8118257 7.72828993e-08 1.115219623e-13)
(18.8118257 7.728275417e-08 9.16902415e-14)
(18.8118257 7.72828128e-08 2.291101891e-14)
(18.8118257 7.728283238e-08 4.262513e-14)
(18.88745618 7.117798706e-08 1.35300321e-13)
(18.88745618 7.117785802e-08 1.276050817e-13)
(18.88745618 7.117789446e-08 -3.247960075e-16)
(18.88745618 7.117795041e-08 7.202413757e-15)
(18.9619359 6.566223444e-08 7.974966555e-14)
(18.9619359 6.566209818e-08 1.193514014e-13)
(18.9619359 6.566206137e-08 5.574692161e-14)
(18.9619359 6.56621154e-08 1.60084758e-14)
(19.03526607 6.068201959e-08 1.686544969e-13)
(19.03526607 6.06819166e-08 7.633158522e-14)
(19.03526607 6.068186204e-08 -3.264742313e-14)
(19.03526607 6.068190616e-08 5.962679016e-14)
(19.10744583 5.618461995e-08 1.418227505e-13)
(19.10744583 5.618453604e-08 8.221337389e-14)
(19.10744583 5.618452803e-08 -5.257343223e-15)
(19.10744583 5.618460924e-08 5.427652016e-14)
(19.17847245 5.212860592e-08 1.512365714e-13)
(19.17847245 5.212845662e-08 9.724358936e-14)
(19.17847245 5.212846619e-08 -1.409643358e-14)
(19.17847245 5.212849382e-08 3.97476061e-14)
(19.2483414 4.846938117e-08 1.602259667e-13)
(19.2483414 4.846921876e-08 5.798178363e-14)
(19.2483414 4.846924223e-08 -2.255504185e-14)
(19.2483414 4.846925984e-08 7.95462193e-14)
(19.31704652 4.51757282e-08 1.640173176e-13)
(19.31704652 4.517565244e-08 7.230594166e-14)
(19.31704652 4.517566288e-08 -2.587711157e-14)
(19.31704652 4.517571364e-08 6.567862277e-14)
(19.38458013 4.220893145e-08 1.533399832e-13)
(19.38458013 4.220884286e-08 1.056729419e-13)
(19.38458013 4.220882566e-08 -1.467777042e-14)
(19.38458013 4.220890934e-08 3.280594775e-14)
(19.45093314 3.954709628e-08 1.507003923e-13)
(19.45093314 3.954700712e-08 7.825337768e-14)
(19.45093314 3.954699325e-08 -1.155164073e-14)
(19.45093314 3.954707134e-08 6.073611241e-14)
(19.51609523 3.715450784e-08 1.399088532e-13)
(19.51609523 3.715441486e-08 1.113053766e-13)
(19.51609523 3.715440737e-08 -2.509509932e-16)
(19.51609523 3.715448102e-08 2.815626878e-14)
(19.58005491 3.501862697e-08 1.344461782e-13)
(19.58005491 3.501854105e-08 8.456440029e-14)
(19.58005491 3.50185332e-08 5.718417247e-15)
(19.58005491 3.501857446e-08 5.542604547e-14)
(19.6427997 3.310435107e-08 1.549082851e-13)
(19.64279971 3.310425247e-08 1.220799378e-13)
(19.64279971 3.310424273e-08 -1.428333541e-14)
(19.6427997 3.310429067e-08 1.842870131e-14)
(19.70431629 3.140852607e-08 1.45817054e-13)
(19.70431629 3.140843447e-08 7.99155365e-14)
(19.70431629 3.140844266e-08 -4.677422457e-15)
(19.70431629 3.140850634e-08 6.107738039e-14)
(19.76459063 2.989357613e-08 1.287006175e-13)
(19.76459064 2.989347336e-08 1.39051041e-13)
(19.76459064 2.989347226e-08 1.291519936e-14)
(19.76459063 2.989352887e-08 2.480843376e-15)
(19.82360814 2.85667844e-08 1.372987243e-13)
(19.82360815 2.856667583e-08 7.464923064e-14)
(19.82360815 2.856666926e-08 4.766630142e-15)
(19.82360814 2.856670031e-08 6.731041392e-14)
(19.88135386 2.738437806e-08 1.493935062e-13)
(19.88135386 2.738433062e-08 1.18096656e-13)
(19.88135386 2.738433362e-08 -6.925038848e-15)
(19.88135386 2.738440039e-08 2.427050567e-14)
(19.9378126 2.636610102e-08 1.117310879e-13)
(19.9378126 2.636603972e-08 1.286855942e-13)
(19.9378126 2.636602967e-08 3.11451417e-14)
(19.9378126 2.636611706e-08 1.400639418e-14)
(19.99296918 2.545756468e-08 1.13953867e-13)
(19.99296919 2.545748574e-08 1.411119325e-13)
(19.99296919 2.545745537e-08 2.926671932e-14)
(19.99296918 2.545749168e-08 1.953592189e-15)
(20.04680859 2.469344086e-08 1.529707899e-13)
(20.04680859 2.469337091e-08 1.104555265e-13)
(20.04680859 2.469335517e-08 -9.440883061e-15)
(20.04680859 2.469342365e-08 3.300831473e-14)
(20.09931616 2.400297e-08 1.031960921e-13)
(20.09931617 2.400288986e-08 1.450837851e-13)
(20.09931617 2.400287804e-08 4.063115387e-14)
(20.09931616 2.400292976e-08 -1.302334911e-15)
(20.15047785 2.344039887e-08 1.546511787e-13)
(20.15047785 2.344027948e-08 1.045512496e-13)
(20.15047785 2.344026615e-08 -1.050111418e-14)
(20.15047785 2.344029844e-08 3.954478515e-14)
(20.20028036 2.291078796e-08 1.267771976e-13)
(20.20028036 2.291069055e-08 9.294856932e-14)
(20.20028036 2.29106827e-08 1.765845559e-14)
(20.20028036 2.291070684e-08 5.142646848e-14)
(20.24871141 2.249446252e-08 1.791372943e-13)
(20.24871141 2.249437418e-08 7.861352076e-14)
(20.24871141 2.249436192e-08 -3.432579725e-14)
(20.24871141 2.249437467e-08 6.614310092e-14)
(20.29575991 2.206289968e-08 1.697122722e-13)
(20.29575992 2.206282976e-08 7.186912188e-14)
(20.29575992 2.206282979e-08 -2.453714432e-14)
(20.29575991 2.206286476e-08 7.326192101e-14)
(20.34141617 2.173180961e-08 1.823689011e-13)
(20.34141617 2.173171581e-08 8.893456376e-14)
(20.34141617 2.173170103e-08 -3.685550885e-14)
(20.34141617 2.173172476e-08 5.653831267e-14)
(20.38567204 2.132632994e-08 2.020281545e-13)
(20.38567204 2.132624955e-08 3.804928596e-14)
(20.38567204 2.132625602e-08 -5.618283532e-14)
(20.38567204 2.132631115e-08 1.077388996e-13)
(20.42852112 2.101116301e-08 1.528340008e-13)
(20.42852112 2.101111326e-08 8.998797458e-14)
(20.42852112 2.101110906e-08 -6.579211504e-15)
(20.42852112 2.101113561e-08 5.615328756e-14)
(20.46995888 2.054962392e-08 2.163649042e-13)
(20.46995888 2.054958478e-08 5.979845207e-14)
(20.46995888 2.054958551e-08 -6.974644377e-14)
(20.46995888 2.054962981e-08 8.671316885e-14)
(20.50998273 2.017488883e-08 1.411800829e-13)
(20.50998273 2.017487025e-08 1.281377673e-13)
(20.50998273 2.017488023e-08 5.736767517e-15)
(20.50998273 2.017497286e-08 1.866127038e-14)
(20.54859212 1.956800994e-08 1.371453991e-13)
(20.54859212 1.956791381e-08 1.287731397e-13)
(20.54859212 1.956789334e-08 1.002579887e-14)
(20.54859212 1.956791084e-08 1.827859963e-14)
(20.58578852 1.905738852e-08 1.819221474e-13)
(20.58578852 1.905734613e-08 7.168786358e-14)
(20.58578852 1.905735414e-08 -3.452763548e-14)
(20.58578852 1.905739115e-08 7.562628846e-14)
(20.62157544 1.821554901e-08 1.213111951e-13)
(20.62157544 1.821548703e-08 1.64275565e-13)
(20.62157544 1.821547887e-08 2.635673617e-14)
(20.62157544 1.821552759e-08 -1.672928994e-14)
(20.65595828 1.750347759e-08 1.706266398e-13)
(20.65595829 1.750335725e-08 6.389804498e-14)
(20.65595829 1.750333963e-08 -2.272472525e-14)
(20.65595828 1.750332956e-08 8.390209971e-14)
(20.68894428 1.634998112e-08 1.868662562e-13)
(20.68894428 1.63499872e-08 7.413487345e-14)
(20.68894428 1.635000072e-08 -3.875826814e-14)
(20.68894428 1.635003885e-08 7.389220929e-14)
(20.72054223 1.539731455e-08 1.432758991e-13)
(20.72054223 1.539729327e-08 1.552753189e-13)
(20.72054223 1.539728567e-08 5.048163704e-15)
(20.72054223 1.539733944e-08 -7.059785242e-15)
(20.7507623 1.388460289e-08 1.658844239e-13)
(20.75076231 1.388455183e-08 1.075551512e-13)
(20.75076231 1.38845463e-08 -1.73241893e-14)
(20.7507623 1.388457061e-08 4.093399843e-14)
(20.77961573 1.269739232e-08 1.527573742e-13)
(20.77961573 1.269736479e-08 1.53313872e-13)
(20.77961573 1.269736938e-08 -3.972725656e-15)
(20.77961573 1.269741844e-08 -4.60735097e-15)
(20.80711446 1.082128533e-08 1.328553134e-13)
(20.80711446 1.082121954e-08 1.428034232e-13)
(20.80711446 1.082121752e-08 1.608463046e-14)
(20.80711446 1.082124091e-08 6.115682112e-15)
(20.83327084 9.465987369e-09 1.564489515e-13)
(20.83327084 9.465935524e-09 1.328445958e-13)
(20.83327084 9.465941246e-09 -7.293555324e-15)
(20.83327084 9.465947477e-09 1.62076393e-14)
(20.85809719 7.275754371e-09 1.463464822e-13)
(20.8580972 7.27568866e-09 1.453761485e-13)
(20.8580972 7.275689246e-09 2.98446899e-15)
(20.85809719 7.275694935e-09 3.874948351e-15)
(20.88160546 5.886656622e-09 1.750437863e-13)
(20.88160547 5.886630392e-09 1.098668551e-13)
(20.88160547 5.88663548e-09 -2.55174641e-14)
(20.88160546 5.886636747e-09 3.95495418e-14)
(20.90380683 3.482129416e-09 1.640049007e-13)
(20.90380684 3.482143391e-09 1.722770499e-13)
(20.90380684 3.482155781e-09 -1.428622847e-14)
(20.90380683 3.482220248e-09 -2.268826985e-14)
(20.92471139 2.255131694e-09 1.072682907e-13)
(20.92471139 2.255077419e-09 1.91226197e-13)
(20.92471139 2.255074857e-09 4.253652979e-14)
(20.92471139 2.255094854e-09 -4.151536139e-14)
(20.9443278 -2.31450871e-10 1.65799187e-13)
(20.94432781 -2.314985933e-10 1.50778151e-13)
(20.94432781 -2.314994544e-10 -1.588962593e-14)
(20.9443278 -2.3153145e-10 -9.654621303e-16)
(20.96266313 -1.059767607e-09 1.683951323e-13)
(20.96266313 -1.059793656e-09 1.766897173e-13)
(20.96266313 -1.059780657e-09 -1.836471983e-14)
(20.96266313 -1.059742928e-09 -2.675897494e-14)
(20.9797226 -3.496310926e-09 1.247741358e-13)
(20.9797226 -3.496359949e-09 1.763619331e-13)
(20.9797226 -3.4963592e-09 2.535570898e-14)
(20.9797226 -3.496364159e-09 -2.630094676e-14)
(20.99550954 -3.67631138e-09 1.923394115e-13)
(20.99550954 -3.676332134e-09 1.568147107e-13)
(20.99550954 -3.676336244e-09 -4.214258941e-14)
(20.99550954 -3.676362809e-09 -6.710780798e-15)
(21.01002535 -5.96910845e-09 1.795891787e-13)
(21.01002535 -5.969113444e-09 1.818178953e-13)
(21.01002535 -5.969102801e-09 -2.927814933e-14)
(21.01002535 -5.9690516e-09 -3.158302253e-14)
(21.02326961 -5.276323142e-09 1.332939803e-13)
(21.02326961 -5.276378834e-09 1.961810971e-13)
(21.02326961 -5.276378088e-09 1.711504233e-14)
(21.02326961 -5.276383319e-09 -4.582929678e-14)
(21.03524021 -7.419863678e-09 1.990606253e-13)
(21.03524021 -7.419921009e-09 1.441027816e-13)
(21.03524021 -7.4199272e-09 -4.850110632e-14)
(21.03524021 -7.419982508e-09 6.370639433e-15)
(21.04593359 -5.651328608e-09 2.204889227e-13)
(21.04593359 -5.651320991e-09 1.444665468e-13)
(21.04593359 -5.65130492e-09 -6.984554567e-14)
(21.04593359 -5.651291443e-09 6.094949468e-15)
(21.05534505 -7.678537559e-09 1.738723495e-13)
(21.05534505 -7.678542439e-09 1.95476454e-13)
(21.05534505 -7.678529478e-09 -2.312431107e-14)
(21.05534505 -7.678517963e-09 -4.485382893e-14)
(21.06346913 -4.716189275e-09 1.998314289e-13)
(21.06346913 -4.716238058e-09 1.735473867e-13)
(21.06346913 -4.716241025e-09 -4.908445825e-14)
(21.06346913 -4.716293127e-09 -2.28757086e-14)
(21.07030009 -7.134589909e-09 2.487907538e-13)
(21.0703001 -7.134561598e-09 1.481903372e-13)
(21.07030009 -7.134549755e-09 -9.804004032e-14)
(21.07030009 -7.134549189e-09 2.514429376e-15)
(21.07583282 -2.977179768e-09 1.906325281e-13)
(21.07583282 -2.977114874e-09 2.351768269e-13)
(21.07583282 -2.977096428e-09 -3.99272436e-14)
(21.07583282 -2.977055415e-09 -8.457763103e-14)
(21.08006465 -4.625296471e-09 1.801627926e-13)
(21.08006466 -4.625259419e-09 2.596627622e-13)
(21.08006466 -4.625267335e-09 -2.948168982e-14)
(21.08006465 -4.625325893e-09 -1.09075206e-13)
(21.08300064 9.864397137e-09 2.702714949e-13)
(21.08300064 9.864231958e-09 2.785155972e-13)
(21.08300064 9.864212665e-09 -1.194960399e-13)
(21.08300064 9.864252064e-09 -1.278401948e-13)
(21.08482993 3.119100861e-08 1.113479649e-13)
(21.08482993 3.119081899e-08 3.035015471e-15)
(21.08482993 3.119083546e-08 3.942968181e-14)
(21.08482993 3.119096454e-08 1.477817825e-13)
(0.02070311884 -2.72332986e-06 -1.112423276e-14)
(0.02070311909 -2.723329885e-06 -1.014955459e-14)
(0.02070311909 -2.723329885e-06 1.126983405e-14)
(0.02070311884 -2.723329859e-06 1.029485904e-14)
(0.1035185414 -3.518266626e-07 -5.332458923e-14)
(0.1035185416 -3.518266216e-07 -5.116047757e-14)
(0.1035185416 -3.518266254e-07 5.405269008e-14)
(0.1035185414 -3.518266638e-07 5.188703855e-14)
(0.2690228097 1.044879833e-06 -1.275632218e-13)
(0.2690228099 1.044880011e-06 -1.25593039e-13)
(0.2690228099 1.044879981e-06 1.294556596e-13)
(0.2690228097 1.044879813e-06 1.274815373e-13)
(0.5166709039 2.451503544e-06 -2.160082294e-13)
(0.5166709041 2.451503886e-06 -2.208167474e-13)
(0.5166709041 2.451503809e-06 2.196439063e-13)
(0.5166709039 2.451503515e-06 2.244441761e-13)
(0.8450857504 5.140352565e-06 -2.983917739e-13)
(0.8450857505 5.140353084e-06 -3.209530132e-13)
(0.8450857505 5.14035302e-06 3.043394746e-13)
(0.8450857504 5.140352603e-06 3.268889315e-13)
(1.251564539 9.616703114e-06 -3.540790959e-13)
(1.251564539 9.616703796e-06 -3.98667697e-13)
(1.251564539 9.616703815e-06 3.628892171e-13)
(1.251564539 9.616703282e-06 4.074634655e-13)
(1.731642088 1.2385828e-05 -3.730599175e-13)
(1.731642088 1.238582881e-05 -4.382069201e-13)
(1.731642088 1.238582885e-05 3.852513378e-13)
(1.731642088 1.238582822e-05 4.503856491e-13)
(2.278796575 7.3611149e-06 -3.365758482e-13)
(2.278796575 7.361115972e-06 -4.296169477e-13)
(2.278796575 7.361115838e-06 3.526249956e-13)
(2.278796575 7.361115198e-06 4.456529429e-13)
(2.884351738 -1.065031998e-05 -2.505789804e-13)
(2.884351738 -1.065031902e-05 -3.764751096e-13)
(2.884351738 -1.065031927e-05 2.709020784e-13)
(2.884351738 -1.065031935e-05 3.967823048e-13)
(3.537611574 -3.813445484e-05 -2.176687018e-13)
(3.537611574 -3.81344544e-05 -3.276195259e-13)
(3.537611574 -3.813445458e-05 2.426030902e-13)
(3.537611574 -3.813445423e-05 3.525420767e-13)
(4.226227739 -3.246897743e-05 -1.845227672e-13)
(4.226227739 -3.246897706e-05 -2.927796386e-13)
(4.226227739 -3.246897747e-05 2.143290838e-13)
(4.226227739 -3.246897716e-05 3.225689612e-13)
(4.93713548 4.123957946e-06 -1.244474867e-13)
(4.937135479 4.123958366e-06 -2.919715585e-13)
(4.937135479 4.123957586e-06 1.592804814e-13)
(4.93713548 4.12395808e-06 3.267947117e-13)
(5.658005746 1.400063893e-05 -7.864160861e-14)
(5.658005746 1.400063932e-05 -3.274991933e-13)
(5.658005746 1.400063856e-05 1.185877716e-13)
(5.658005746 1.400063906e-05 3.674271606e-13)
(6.377968916 9.175342859e-06 -3.284590066e-14)
(6.377968916 9.175343238e-06 -3.42156006e-13)
(6.377968916 9.175342511e-06 7.789309866e-14)
(6.377968916 9.175343311e-06 3.871855746e-13)
(7.087562656 4.853428138e-06 -6.605163055e-14)
(7.087562655 4.853428563e-06 -3.723618183e-13)
(7.087562655 4.853427476e-06 1.161348581e-13)
(7.087562656 4.85342905e-06 4.224252862e-13)
(7.778729724 1.316763984e-06 -1.128763037e-13)
(7.778729723 1.316764322e-06 -4.438468535e-13)
(7.778729723 1.31676276e-06 1.678619484e-13)
(7.778729724 1.316764906e-06 4.988267245e-13)
(8.44482532 -1.590149694e-06 -1.678688175e-13)
(8.444825319 -1.590149726e-06 -5.858761656e-13)
(8.444825319 -1.5901515e-06 2.275801091e-13)
(8.44482532 -1.590148852e-06 6.456014306e-13)
(9.080618385 -3.576736756e-06 -2.831965891e-13)
(9.080618384 -3.576737213e-06 -7.839694335e-13)
(9.080618384 -3.576739261e-06 3.474277127e-13)
(9.080618385 -3.576735888e-06 8.482321964e-13)
(9.68227746 -4.682767549e-06 -4.508220728e-13)
(9.682277459 -4.682768855e-06 -1.093427553e-12)
(9.682277459 -4.682771357e-06 5.193386981e-13)
(9.68227746 -4.682766565e-06 1.161980984e-12)
(10.24732128 -5.184825324e-06 -8.622433607e-13)
(10.24732128 -5.184827072e-06 -1.663211228e-12)
(10.24732128 -5.184829937e-06 9.347930051e-13)
(10.24732128 -5.184824276e-06 1.735791824e-12)
(10.77452221 -4.698614336e-06 -1.230774644e-12)
(10.7745222 -4.698600551e-06 -2.244717098e-12)
(10.7745222 -4.698603826e-06 1.307093303e-12)
(10.77452221 -4.698613182e-06 2.321052029e-12)
(11.26376342 -5.126426641e-06 3.167439287e-12)
(11.26376342 -5.12641149e-06 1.922872412e-12)
(11.26376342 -5.126415141e-06 -3.087615284e-12)
(11.26376342 -5.126425227e-06 -1.843048908e-12)
(11.7158614 -4.724505894e-06 2.671226188e-12)
(11.7158614 -4.724504908e-06 1.213094384e-12)
(11.7158614 -4.724509522e-06 -2.588152835e-12)
(11.7158614 -4.724504613e-06 -1.130046028e-12)
(12.13237192 -2.678704233e-06 2.74976575e-12)
(12.13237192 -2.678704128e-06 7.08387449e-13)
(12.13237192 -2.678706239e-06 -2.66369535e-12)
(12.13237192 -2.678702857e-06 -6.223669857e-13)
(12.51538907 -1.722708412e-06 1.685158162e-12)
(12.51538908 -1.722703128e-06 4.538966106e-13)
(12.51538908 -1.72270963e-06 -1.596356596e-12)
(12.51538907 -1.722707155e-06 -3.651180886e-13)
(12.86735175 -6.502176944e-07 3.85868355e-12)
(12.86735175 -6.502180893e-07 2.035161225e-13)
(12.86735175 -6.502183265e-07 -3.767356998e-12)
(12.86735175 -6.502182586e-07 -1.122233331e-13)
(13.190878 4.665291997e-08 8.421460685e-13)
(13.190878 4.664640253e-08 1.744403429e-13)
(13.190878 4.665267411e-08 -7.484983675e-13)
(13.190878 4.665085196e-08 -8.083057358e-14)
(13.48863203 6.531185691e-07 1.839352437e-12)
(13.48863203 6.531174573e-07 7.350909231e-14)
(13.48863203 6.531183683e-07 -1.743577467e-12)
(13.48863203 6.531162783e-07 2.224404447e-14)
(13.76322366 1.066622335e-06 8.266213372e-13)
(13.76322366 1.06661807e-06 7.201674374e-14)
(13.76322366 1.06662225e-06 -7.288712856e-13)
(13.76322366 1.066620164e-06 2.570797903e-14)
(14.01713735 1.377208058e-06 7.149346214e-13)